# vtk DataFile Version 4.0
hesp visualization file
ASCII
DATASET UNSTRUCTURED_GRID
POINTS 32 double
3.8162055 1.0186483 4
3.3306334 2.2838241 4
3.1952816 3.3489185 4
3.8439371 4.5834303 4
4.8794786 0.0020678229 4
4.5080616 1.7774009 4
4.4725256 3.7979697 4
4.7832716 5.6547861 4
7.5235369 -1.0655885 4
5.8648919 0.86245532 4
5.888973 4.7643658 4
7.6667075 6.6924116 4
9.5324527 -1.7933819 4
9.8969412 1.621088 4
9.707603 3.8637137 4
9.5498542 7.3768043 4
12.043337 -1.7719817 4
11.822109 1.7111903 4
11.752894 3.9957194 4
12.10886 7.4107091 4
13.988928 -1.0655166 4
15.729222 0.84590121 4
15.740828 4.7517232 4
14.087787 6.6988947 4
16.790858 -0.033078584 4
17.123711 1.7945673 4
17.117761 3.8184725 4
16.77156 5.6273574 4
17.788088 1.0172241 4
18.382112 2.2786441 4
18.315344 3.3459148 4
17.778771 4.5845887 4
CELLS 0 0
CELL_TYPES 0
POINT_DATA 32
SCALARS m double
LOOKUP_TABLE default
1
1
1
1
1
1
1
1
1
1
1
1
1
1
1
1
1
1
1
1
1
1
1
1
1
1
1
1
1
1
1
1
VECTORS v double
-10.852149 -1.5218282 0
-12.091952 0.02159707 0
-12.701084 0.08986804 0
-10.431066 1.2549288 0
-12.248785 -4.8533191 0
-9.3139288 -0.22235307 0
-9.6615582 0.28190782 0
-12.505632 4.9337819 0
-6.4954071 -8.6898015 0
-8.2279546 -3.0309636 0
-8.1451157 3.1512262 0
-6.0154973 8.7362817 0
-2.8603854 -7.8814575 0
-0.86240932 -0.98363292 0
-1.4771427 0.60368078 0
-2.8409858 7.7888804 0
2.7663606 -7.8151615 0
1.1990201 -0.717739 0
0.99469295 0.99597437 0
2.9571957 7.8941768 0
6.1679307 -8.6900284 0
8.1569035 -3.1391456 0
8.2159438 3.0583282 0
6.48529 8.746421 0
12.388379 -4.9148606 0
9.4352016 -0.19649241 0
9.4799585 0.27031256 0
12.360099 4.8955154 0
10.704654 -1.4736855 0
12.552252 -0.072401817 0
12.242518 0.11386775 0
10.629874 1.3682629 0
