# vtk DataFile Version 4.0
hesp visualization file
ASCII
DATASET UNSTRUCTURED_GRID
POINTS 32 double
-1.8955933 0.30193928 4
-2.9393058 2.2494751 4
-3.3702249 3.3957063 4
-1.7401161 5.3123794 4
-1.6025796 -2.4533686 4
-0.5576669 1.6644067 4
-0.66011596 3.8399981 4
-1.8529664 8.1601221 4
4.0848013 -5.6713733 4
1.41709 -0.7682748 4
1.5122315 6.4467505 4
4.4859704 11.32402 4
8.0127512 -5.9688723 4
9.4530105 1.1064923 4
8.9337391 4.1783204 4
8.0369196 11.502354 4
13.514643 -5.9119634 4
12.443613 1.3353524 4
12.27188 4.5176334 4
13.680699 11.592774 4
17.252485 -5.6719907 4
20.120681 -0.83399652 4
20.170698 6.3912143 4
17.520432 11.3349 4
23.359073 -2.5285918 4
22.210491 1.7042274 4
22.218178 3.8988467 4
23.320851 8.1087662 4
23.438293 0.27550586 4
24.883097 2.2331756 4
24.646067 3.4505604 4
23.436166 5.2838896 4
CELLS 0 0
CELL_TYPES 0
POINT_DATA 32
SCALARS m double
LOOKUP_TABLE default
1
1
1
1
1
1
1
1
1
1
1
1
1
1
1
1
1
1
1
1
1
1
1
1
1
1
1
1
1
1
1
1
VECTORS v double
-10.66087 -1.1676151 0
-11.888784 0.40247004 0
-12.148429 -0.42258068 0
-10.416834 1.1991414 0
-12.231687 -4.579617 0
-9.7466578 -0.3062607 0
-9.8512854 0.2066289 0
-12.525741 4.6763136 0
-6.486037 -8.6902277 0
-8.4239551 -3.0778556 0
-8.2794411 3.1735453 0
-5.9970961 8.7394103 0
-2.8694319 -7.8776623 0
-0.82857865 -0.96488691 0
-1.454056 0.58865239 0
-2.8587856 7.7830897 0
2.778979 -7.8105172 0
1.1627147 -0.70499165 0
0.97405837 0.97950132 0
2.9682485 7.890006 0
6.1545959 -8.6917433 0
8.3102205 -3.1694163 0
8.3855919 3.0933073 0
6.474142 8.7473259 0
12.396942 -4.6576426 0
9.763744 -0.28199575 0
9.8172909 0.2666589 0
12.36002 4.6304356 0
10.541021 -1.2338511 0
12.102493 0.43177913 0
11.921961 -0.28555966 0
10.560866 1.116299 0
