# vtk DataFile Version 4.0
hesp visualization file
ASCII
DATASET UNSTRUCTURED_GRID
POINTS 32 double
-5.7276978 -0.10851072 4
-7.1762051 2.3257939 4
-7.7809374 3.3104012 4
-5.4825809 5.7316139 4
-6.0059051 -4.101338 4
-4.0755941 1.552569 4
-4.2160657 3.9200522 4
-6.3621295 9.8430671 4
1.7498822 -8.7998527 4
-1.6159654 -1.8760804 4
-1.4686828 7.5890661 4
2.3271336 14.470207 4
6.9797033 -8.8048261 4
9.1551187 0.75955676 4
8.4105587 4.3898745 4
7.0076406 14.304262 4
14.515153 -8.7237447 4
12.86171 1.0818511 4
12.622345 4.8698951 4
14.749332 14.433172 4
19.468059 -8.8010167 4
23.1127 -1.97481 4
23.189895 7.5046052 4
19.851058 14.483935 4
27.821882 -4.2047365 4
25.733937 1.5995196 4
25.762969 3.9995086 4
27.770366 9.7751368 4
27.226561 -0.15899057 4
29.259123 2.3220136 4
28.912795 3.4159259 4
27.231011 5.6730306 4
CELLS 0 0
CELL_TYPES 0
POINT_DATA 32
SCALARS m double
LOOKUP_TABLE default
1
1
1
1
1
1
1
1
1
1
1
1
1
1
1
1
1
1
1
1
1
1
1
1
1
1
1
1
1
1
1
1
VECTORS v double
-10.634375 -1.1232085 0
-11.506355 -0.28513094 0
-12.505707 0.25756807 0
-10.38196 1.1419499 0
-12.231316 -4.5768507 0
-9.7878442 -0.31048641 0
-9.8942609 0.23013495 0
-12.525299 4.6742339 0
-6.4858071 -8.6902157 0
-8.4257564 -3.0768924 0
-8.2807685 3.1728473 0
-5.9965948 8.7394001 0
-2.8696543 -7.8776448 0
-0.82682561 -0.96292951 0
-1.4528 0.58698007 0
-2.8592801 7.7830755 0
2.7793089 -7.8104998 0
1.1605619 -0.7036214 0
0.97320159 0.97784572 0
2.9685193 7.8899892 0
6.154257 -8.6917339 0
8.3116466 -3.1686521 0
8.3871987 3.0924418 0
6.4738665 8.7473142 0
12.396546 -4.6552353 0
9.8021408 -0.29387217 0
9.865346 0.28583361 0
12.359616 4.6281128 0
10.511383 -1.1899581 0
12.325595 -0.38542559 0
11.67264 0.53840799 0
10.527999 1.058363 0
