# vtk DataFile Version 4.0
hesp visualization file
ASCII
DATASET UNSTRUCTURED_GRID
POINTS 2 double
-0.0392163 0 0
1.16168 0 0
CELLS 0 0
CELL_TYPES 0
POINT_DATA 2
SCALARS m double
LOOKUP_TABLE default
1
1
VECTORS v double
-2.16062 0 0
2.16062 0 0
