# vtk DataFile Version 4.0
hesp visualization file
ASCII
DATASET UNSTRUCTURED_GRID
POINTS 32 double
7.6969085 1.1489512 4
7.7138025 2.2544941 4
7.7129988 3.358773 4
7.6967204 4.464424 4
8.5559779 1.1615956 4
8.5674629 2.2602125 4
8.5668012 3.3516885 4
8.5560495 4.45035 4
9.4830013 1.1878614 4
9.4907403 2.2713061 4
9.4898139 3.3412288 4
9.4828273 4.4245796 4
10.346269 1.1361996 4
10.350707 2.2466539 4
10.350414 3.365438 4
10.346245 4.475958 4
11.26627 1.1362887 4
11.262485 2.2467658 4
11.261669 3.3656409 4
11.266068 4.4760997 4
12.129517 1.1878061 4
12.122331 2.2712022 4
12.122272 3.3411001 4
12.12947 4.4245152 4
13.056732 1.1617855 4
13.045884 2.2604171 4
13.045278 3.3518906 4
13.056258 4.4505203 4
13.915594 1.1485556 4
13.899133 2.2540551 4
13.899105 3.3582546 4
13.915577 4.4637546 4
CELLS 0 0
CELL_TYPES 0
POINT_DATA 32
SCALARS m double
LOOKUP_TABLE default
1
1
1
1
1
1
1
1
1
1
1
1
1
1
1
1
1
1
1
1
1
1
1
1
1
1
1
1
1
1
1
1
VECTORS v double
8.8872782 -0.11691375 0
8.7088837 -0.032778551 0
8.7096961 0.037075701 0
8.8924795 0.1211865 0
-8.7809864 -0.49731487 0
-9.1614272 -0.18686957 0
-9.1832587 0.17357083 0
-8.7853647 0.48690267 0
8.7577563 0.74593765 0
8.7698311 0.35885582 0
8.7804494 -0.34591331 0
8.7609774 -0.73668555 0
-8.7309706 -0.54987881 0
-8.9290532 -0.28311426 0
-8.9472761 0.27444547 0
-8.7341559 0.54413944 0
8.7304149 -0.54597044 0
8.9320045 -0.27782679 0
8.9462423 0.28363576 0
8.7341718 0.55027856 0
-8.7569934 0.74119756 0
-8.7640466 0.35242458 0
-8.7816532 -0.35321194 0
-8.7606429 -0.74151921 0
8.7779254 -0.49175663 0
9.1532125 -0.18003515 0
9.1815903 0.18045064 0
8.7846377 0.49207393 0
-8.884007 -0.11840383 0
-8.6992074 -0.034886827 0
-8.7111571 0.034745916 0
-8.8921301 0.11829952 0
