# vtk DataFile Version 4.0
hesp visualization file
ASCII
DATASET UNSTRUCTURED_GRID
POINTS 32 double
-5.4086503 -0.074787539 4
-6.8312515 2.3347475 4
-7.4055157 3.3022703 4
-5.1710995 5.6973182 4
-5.6389654 -3.9640317 4
-3.7819839 1.56189 4
-3.9192641 3.9131558 4
-5.9863704 9.7028395 4
1.9444565 -8.5391462 4
-1.3631934 -1.7837732 4
-1.2202603 7.4938803 4
2.5070317 14.208025 4
7.0657928 -8.5684968 4
9.1799244 0.78844594 4
8.4541435 4.3722639 4
7.0934188 14.07077 4
14.431774 -8.4894297 4
12.826892 1.1029607 4
12.593149 4.8405587 4
14.660277 14.196472 4
19.283431 -8.5402646 4
22.863352 -1.87975 4
22.93828 7.4118315 4
19.656842 14.221515 4
27.449985 -4.0650787 4
25.439896 1.6083362 4
25.467038 3.9909393 4
27.399577 9.6362928 4
26.911202 -0.12326482 4
28.889257 2.3338715 4
28.5627 3.3994825 4
26.915149 5.6412425 4
CELLS 0 0
CELL_TYPES 0
POINT_DATA 32
SCALARS m double
LOOKUP_TABLE default
1
1
1
1
1
1
1
1
1
1
1
1
1
1
1
1
1
1
1
1
1
1
1
1
1
1
1
1
1
1
1
1
VECTORS v double
-10.635481 -1.1250349 0
-11.494002 -0.30619629 0
-12.518975 0.27891575 0
-10.383492 1.1444726 0
-12.23133 -4.5769089 0
-9.786137 -0.31090427 0
-9.8924787 0.22960093 0
-12.525312 4.6742739 0
-6.485814 -8.6902163 0
-8.4257061 -3.0769245 0
-8.2807299 3.172871 0
-5.9966102 8.7394011 0
-2.8696476 -7.877645 0
-0.82689052 -0.96301749 0
-1.4528503 0.58705626 0
-2.8592649 7.7830752 0
2.7792989 -7.8104998 0
1.1606467 -0.70368379 0
0.97323203 0.97791991 0
2.9685111 7.8899893 0
6.1542672 -8.6917346 0
8.3116059 -3.1686776 0
8.387153 3.0924708 0
6.4738748 8.7473149 0
12.396559 -4.6552838 0
9.8005599 -0.29389044 0
9.8632954 0.28543066 0
12.359629 4.6281594 0
10.512639 -1.1917916 0
12.329584 -0.39696058 0
11.669599 0.54967936 0
10.529487 1.0608799 0
