# vtk DataFile Version 4.0
hesp visualization file
ASCII
DATASET UNSTRUCTURED_GRID
POINTS 32 double
2.0684669 0.76798271 4
1.427282 2.2411853 4
1.1831718 3.4034204 4
2.1377631 4.8315991 4
2.9228731 -0.75296608 4
3.01624 1.7624879 4
2.9532554 3.789184 4
2.7814679 6.4244568 4
6.4849228 -2.4559911 4
4.5309774 0.37128915 4
4.5735939 5.2719422 4
6.7054903 8.0904801 4
9.0741629 -3.0540827 4
9.7610441 1.4646481 4
9.4727151 3.959567 4
9.0940865 8.6225269 4
12.486822 -3.0220046 4
12.01176 1.5969878 4
11.910692 4.1542334 4
12.582784 8.6734126 4
14.974869 -2.4560663 4
17.048179 0.33932885 4
17.0706 5.2459726 4
15.124657 8.0983977 4
18.772456 -0.79963187 4
18.627106 1.7891067 4
18.620921 3.8220563 4
18.74782 6.3899295 4
19.516825 0.76343023 4
20.368963 2.2241949 4
20.243777 3.4118499 4
19.507615 4.8306592 4
CELLS 0 0
CELL_TYPES 0
POINT_DATA 32
SCALARS m double
LOOKUP_TABLE default
1
1
1
1
1
1
1
1
1
1
1
1
1
1
1
1
1
1
1
1
1
1
1
1
1
1
1
1
1
1
1
1
VECTORS v double
-10.824605 -1.4316174 0
-11.785848 -0.31814154 0
-12.475075 0.35941627 0
-10.604754 1.4786207 0
-12.226946 -4.6398721 0
-9.4845952 -0.16764488 0
-9.6000133 -0.0059730691 0
-12.521085 4.7340915 0
-6.4886427 -8.6901646 0
-8.392937 -3.0822248 0
-8.2586399 3.1776197 0
-6.0023744 8.7388817 0
-2.8669146 -7.8782757 0
-0.84026057 -0.97313435 0
-1.461839 0.59542488 0
-2.8536134 7.7840586 0
2.7753884 -7.8112826 0
1.1756668 -0.71063662 0
0.9805764 0.98662423 0
2.9651984 7.8906793 0
6.1583205 -8.6914646 0
8.2866005 -3.1735682 0
8.359006 3.0978819 0
6.4772374 8.7471844 0
12.391268 -4.715833 0
9.528632 -0.11242315 0
9.5375881 0.083380528 0
12.355329 4.6885893 0
10.714425 -1.4768707 0
12.320196 -0.35773769 0
11.936364 0.45570971 0
10.731567 1.4208434 0
