# vtk DataFile Version 4.0
hesp visualization file
ASCII
DATASET UNSTRUCTURED_GRID
POINTS 32 double
-2.4284784 0.24384177 4
-3.5346557 2.2721943 4
-3.9765584 3.3719244 4
-2.2607515 5.3719974 4
-2.2141619 -2.6823248 4
-1.0452581 1.6490202 4
-1.1529445 3.8505087 4
-2.4792504 8.3939185 4
3.7605011 -6.1058846 4
0.99587813 -0.92216088 4
1.0982493 6.6054229 4
4.1861193 11.760991 4
7.869278 -6.3627553 4
9.4115931 1.0582593 4
8.8610442 4.2077434 4
7.8939767 11.891508 4
13.653594 -6.302489 4
12.501735 1.3001107 4
12.320577 4.5665988 4
13.829113 11.987274 4
17.560212 -6.1065779 4
20.536203 -0.99246202 4
20.58999 6.5458736 4
17.844137 11.772266 4
23.978917 -2.7614521 4
22.698917 1.6900128 4
22.709336 3.912329 4
23.938849 8.3402668 4
23.965166 0.21408392 4
25.487577 2.25763 4
25.242623 3.4334663 4
23.964024 5.3393501 4
CELLS 0 0
CELL_TYPES 0
POINT_DATA 32
SCALARS m double
LOOKUP_TABLE default
1
1
1
1
1
1
1
1
1
1
1
1
1
1
1
1
1
1
1
1
1
1
1
1
1
1
1
1
1
1
1
1
VECTORS v double
-10.65474 -1.1567167 0
-11.924835 0.50378454 0
-12.105613 -0.52606121 0
-10.40885 1.1860236 0
-12.231604 -4.5786958 0
-9.7566071 -0.30898385 0
-9.8614854 0.21346374 0
-12.525621 4.675593 0
-6.4859717 -8.6902254 0
-8.4244889 -3.0775991 0
-8.2798263 3.1733604 0
-5.9969556 8.7394108 0
-2.869495 -7.8776556 0
-0.82813581 -0.96444667 0
-1.4537502 0.58827974 0
-2.8589241 7.7830819 0
2.779072 -7.8105098 0
1.162188 -0.70468585 0
0.97383632 0.97912785 0
2.9683252 7.8899992 0
6.1545002 -8.6917426 0
8.310639 -3.1692127 0
8.3860641 3.0930768 0
6.4740639 8.747324 0
12.396845 -4.656826 0
9.7729358 -0.28632726 0
9.8286223 0.27235225 0
12.359919 4.6296445 0
10.534125 -1.2234086 0
12.076881 0.54505354 0
11.940466 -0.39695588 0
10.553643 1.1026182 0
