# vtk DataFile Version 4.0
hesp visualization file
ASCII
DATASET UNSTRUCTURED_GRID
POINTS 32 double
6.2082371 1.1583362 4
6.2371034 2.2582597 4
6.2365606 3.3547544 4
6.2080203 4.4545961 4
7.3081443 1.1865883 4
7.3178494 2.2673313 4
7.3172959 3.3448738 4
7.3079247 4.4256124 4
8.4046561 1.1866511 4
8.3955218 2.2673871 4
8.3948591 3.3449196 4
8.4043948 4.4256573 4
9.5045325 1.1580342 4
9.4762967 2.2579236 4
9.4756625 3.3543656 4
9.5043296 4.4542726 4
12.107982 1.158033 4
12.136589 2.2579315 4
12.136589 3.3543787 4
12.107982 4.4542773 4
13.207916 1.1866399 4
13.217368 2.2673837 4
13.217368 3.3449265 4
13.207916 4.4256703 4
14.304377 1.1866388 4
14.294921 2.2673833 4
14.294921 3.3449269 4
14.304377 4.4256715 4
15.404284 1.1580243 4
15.375669 2.2579284 4
15.375669 3.3543818 4
15.404284 4.454286 4
CELLS 0 0
CELL_TYPES 0
POINT_DATA 32
SCALARS m double
LOOKUP_TABLE default
1
1
1
1
1
1
1
1
1
1
1
1
1
1
1
1
1
1
1
1
1
1
1
1
1
1
1
1
1
1
1
1
VECTORS v double
9.9931038 -0.0065175554 0
9.9675645 -0.018150574 0
9.9664614 0.019292957 0
9.9931171 0.0092532678 0
9.9812497 -0.033517023 0
9.9618114 -0.039399459 0
9.9604476 0.038701999 0
9.9816603 0.03267283 0
10.018831 -0.03303883 0
10.039938 -0.038931119 0
10.038736 0.039121993 0
10.018646 0.032913983 0
10.009926 -0.0066338522 0
10.039302 -0.018308013 0
10.033923 0.018160317 0
10.008218 0.0065203445 0
-10.008204 -0.0065874289 0
-10.034587 -0.018262777 0
-10.034586 0.018262529 0
-10.008204 0.0065875064 0
-10.01865 -0.032975442 0
-10.039413 -0.039021224 0
-10.039413 0.039021201 0
-10.01865 0.032975439 0
-9.9817336 -0.033005359 0
-9.9610769 -0.039032386 0
-9.9610769 0.039032382 0
-9.9817336 0.033005357 0
-9.993163 -0.0068679714 0
-9.967031 -0.018352547 0
-9.967031 0.018352546 0
-9.993163 0.006867971 0
