# vtk DataFile Version 4.0
hesp visualization file
ASCII
DATASET UNSTRUCTURED_GRID
POINTS 32 double
-4.9831983 -0.029732687 4
-6.3711785 2.3464758 4
-6.9050426 3.2916252 4
-4.755715 5.6514656 4
-5.1497117 -3.7809535 4
-3.3905885 1.5743358 4
-3.5236175 3.9039896 4
-5.4853575 9.5158672 4
2.2038893 -8.1915376 4
-1.0261667 -1.6606952 4
-0.88903232 7.3669647 4
2.7468965 13.858449 4
7.1805785 -8.253391 4
9.213002 0.82696921 4
8.512259 4.3487795 4
7.2077889 13.759447 4
14.320602 -8.1770097 4
12.780463 1.1311098 4
12.554219 4.8014397 4
14.541536 13.880873 4
19.03726 -8.1925952 4
22.530889 -1.7530021 4
22.602795 7.2881318 4
19.397886 13.871623 4
26.954122 -3.8788658 4
25.047921 1.6200901 4
25.072567 3.9795357 4
26.905192 9.4511649 4
26.490659 -0.075539272 4
28.396439 2.3484968 4
28.095523 3.378756 4
26.493926 5.5987341 4
CELLS 0 0
CELL_TYPES 0
POINT_DATA 32
SCALARS m double
LOOKUP_TABLE default
1
1
1
1
1
1
1
1
1
1
1
1
1
1
1
1
1
1
1
1
1
1
1
1
1
1
1
1
1
1
1
1
VECTORS v double
-10.637163 -1.1277705 0
-11.520379 -0.26132109 0
-12.493981 0.23444696 0
-10.385785 1.148242 0
-12.231352 -4.5770056 0
-9.7835722 -0.31136343 0
-9.8897864 0.22866307 0
-12.525333 4.674341 0
-6.4858249 -8.6902171 0
-8.4256257 -3.0769748 0
-8.2806685 3.1729079 0
-5.9966345 8.7394025 0
-2.8696371 -7.8776453 0
-0.82699039 -0.96314879 0
-1.4529265 0.58716973 0
-2.8592409 7.7830748 0
2.7792831 -7.8104999 0
1.1607758 -0.70377669 0
0.97327911 0.97803065 0
2.9684982 7.8899896 0
6.1542835 -8.6917356 0
8.3115412 -3.1687175 0
8.3870803 3.092516 0
6.4738879 8.7473158 0
12.39658 -4.6553649 0
9.7981723 -0.29377263 0
9.8602222 0.28470824 0
12.35965 4.6282371 0
10.514535 -1.1945519 0
12.303586 -0.30765789 0
11.697025 0.45999643 0
10.531721 1.064623 0
