# vtk DataFile Version 4.0
hesp visualization file
ASCII
DATASET UNSTRUCTURED_GRID
POINTS 32 double
7.7503793 1.14731 4
7.7617342 2.2539111 4
7.7609666 3.3594722 4
7.750376 4.4661726 4
8.5009964 1.1571033 4
8.5123318 2.2585449 4
8.5114116 3.3531485 4
8.5008797 4.4546716 4
9.5410623 1.1977067 4
9.5457487 2.2760939 4
9.5452024 3.3366057 4
9.5409763 4.4148463 4
10.288117 1.1284818 4
10.29347 2.2426228 4
10.292704 3.3693474 4
10.288008 4.4835999 4
11.324403 1.128617 4
11.319687 2.2427985 4
11.319379 3.3696612 4
11.324308 4.4838143 4
12.071485 1.1975962 4
12.067457 2.2759148 4
12.066861 3.3363856 4
12.071322 4.4147224 4
13.111581 1.1573792 4
13.100722 2.2588552 4
13.100663 3.353459 4
13.111409 4.4549337 4
13.86225 1.1468701 4
13.851497 2.2534146 4
13.851111 3.3588915 4
13.861936 4.4654357 4
CELLS 0 0
CELL_TYPES 0
POINT_DATA 32
SCALARS m double
LOOKUP_TABLE default
1
1
1
1
1
1
1
1
1
1
1
1
1
1
1
1
1
1
1
1
1
1
1
1
1
1
1
1
1
1
1
1
VECTORS v double
-2.0479082 -0.259319 0
-2.9161421 -0.1067405 0
-2.9231831 0.134855 0
-2.0266321 0.28591278 0
1.8310555 -0.34617796 0
2.1308223 -0.12124339 0
2.1157091 0.083973876 0
1.8092244 0.3131439 0
-1.2715276 1.6018653 0
-2.0198067 0.78658311 0
-1.9846462 -0.76369499 0
-1.2652231 -1.586735 0
1.2531812 -1.3781987 0
1.77857 -0.71486438 0
1.7337387 0.69625953 0
1.24731 1.3667412 0
-1.2558955 -1.3714533 0
-1.7842508 -0.70520118 0
-1.7325143 0.71223816 0
-1.2453334 1.3768985 0
1.275345 1.5941863 0
2.0356941 0.77581493 0
1.9810356 -0.77767898 0
1.2637086 -1.5955895 0
-1.8464374 -0.33084422 0
-2.1596723 -0.10286457 0
-2.1156977 0.10347737 0
-1.8112786 0.33168928 0
2.0625414 -0.27045257 0
2.9452994 -0.12028347 0
2.9199497 0.11994611 0
2.0281851 0.26989748 0
