# vtk DataFile Version 4.0
hesp visualization file
ASCII
DATASET UNSTRUCTURED_GRID
POINTS 32 double
-4.5576737 0.015439333 4
-5.9086382 2.3538386 4
-6.4069772 3.2853286 4
-4.3402324 5.6054518 4
-4.6604572 -3.5978709 4
-2.9993032 1.5867972 4
-3.1280867 3.8948668 4
-4.9843437 9.3288919 4
2.4633226 -7.8439289 4
-0.68914358 -1.5376151 4
-0.55780703 7.2400476 4
2.9867625 13.508872 4
7.2953637 -7.9382851 4
9.2460839 0.86549809 4
8.5703777 4.3252902 4
7.322158 13.448124 4
14.209431 -7.8645897 4
12.734029 1.159263 4
12.515286 4.762316 4
14.422797 13.565273 4
18.791089 -7.8449258 4
22.198428 -1.6262525 4
22.267313 7.1644301 4
19.138931 13.52173 4
26.458259 -3.6926492 4
24.656048 1.6318354 4
24.678227 3.968166 4
26.410805 9.2660335 4
26.070035 -0.027695175 4
27.905636 2.3560812 4
27.62627 3.3650862 4
26.072607 5.556066 4
CELLS 0 0
CELL_TYPES 0
POINT_DATA 32
SCALARS m double
LOOKUP_TABLE default
1
1
1
1
1
1
1
1
1
1
1
1
1
1
1
1
1
1
1
1
1
1
1
1
1
1
1
1
1
1
1
1
VECTORS v double
-10.63912 -1.1309054 0
-11.61999 -0.080897979 0
-12.395977 0.054470548 0
-10.388407 1.152545 0
-12.231378 -4.5771308 0
-9.780623 -0.31167716 0
-9.8866739 0.22741563 0
-12.525359 4.674429 0
-6.4858382 -8.6902181 0
-8.4255265 -3.0770352 0
-8.2805932 3.1729521 0
-5.9966641 8.7394041 0
-2.8696241 -7.8776459 0
-0.8271083 -0.9632984 0
-1.4530151 0.58729872 0
-2.8592117 7.7830746 0
2.7792638 -7.8105003 0
1.1609263 -0.70388228 0
0.97333507 0.97815687 0
2.9684825 7.88999 0
6.1543033 -8.6917367 0
8.3114616 -3.1687655 0
8.3869908 3.0925704 0
6.4739039 8.7473169 0
12.396606 -4.6554705 0
9.7954113 -0.29345252 0
9.8566998 0.28373047 0
12.359676 4.6283384 0
10.516723 -1.197731 0
12.228537 -0.040817508 0
11.773727 0.19273568 0
10.534283 1.0688779 0
