# vtk DataFile Version 4.0
hesp visualization file
ASCII
DATASET UNSTRUCTURED_GRID
POINTS 32 double
5.9080895 1.1581784 4
5.937288 2.2586653 4
5.9367761 3.3543137 4
5.9078725 4.4546764 4
7.0085683 1.1868035 4
7.0189342 2.2684406 4
7.0184107 3.3437828 4
7.0083347 4.4254215 4
8.1042293 1.1868524 4
8.0943928 2.2684839 4
8.0937707 3.3438179 4
8.1039789 4.4254595 4
9.2046074 1.1578815 4
9.1759297 2.2583332 4
9.1754508 3.3539604 4
9.2044536 4.4544279 4
12.407858 1.1578793 4
12.436818 2.2583396 4
12.436818 3.3539706 4
12.407858 4.4544309 4
13.508332 1.1868399 4
13.518475 2.268483 4
13.518475 3.3438272 4
13.508332 4.4254704 4
14.603969 1.1868393 4
14.593824 2.2684828 4
14.593824 3.3438274 4
14.603969 4.4254709 4
15.704433 1.1578758 4
15.675469 2.2583383 4
15.675469 3.353972 4
15.704433 4.4544345 4
CELLS 0 0
CELL_TYPES 0
POINT_DATA 32
SCALARS m double
LOOKUP_TABLE default
1
1
1
1
1
1
1
1
1
1
1
1
1
1
1
1
1
1
1
1
1
1
1
1
1
1
1
1
1
1
1
1
VECTORS v double
10.016492 0.016792193 0
10.019555 -0.0082212687 0
10.018591 0.0094365932 0
10.016505 -0.014382931 0
9.9911634 0.018597907 0
9.9678941 -0.032546812 0
9.9672454 0.032018398 0
9.9916651 -0.01937036 0
10.008993 0.019041786 0
10.033427 -0.032180765 0
10.031848 0.032315865 0
10.008452 -0.019146829 0
9.9854927 0.016609827 0
9.9858992 -0.0083333379 0
9.9809874 0.008187259 0
9.9839486 -0.016676408 0
-9.9839376 0.016628987 0
-9.9814972 -0.0082825832 0
-9.9814971 0.0082825346 0
-9.9839375 -0.016628982 0
-10.008454 0.019068304 0
-10.032427 -0.032254415 0
-10.032427 0.032254408 0
-10.008454 -0.019068305 0
-9.9917284 0.019055603 0
-9.967799 -0.032259183 0
-9.967799 0.032259182 0
-9.9917284 -0.019055604 0
-10.016549 0.016529983 0
-10.019077 -0.0083182294 0
-10.019077 0.0083182291 0
-10.016549 -0.016529983 0
