# vtk DataFile Version 4.0
hesp visualization file
ASCII
DATASET UNSTRUCTURED_GRID
POINTS 32 double
-0.61511833 0.44420348 4
-1.5174631 2.2166218 4
-1.9061709 3.4304981 4
-0.48858694 5.1660052 4
-0.13476646 -1.9035851 4
0.60997336 1.7004631 4
0.52006596 3.8166423 4
-0.34985558 7.598777 4
4.86314 -4.6285456 4
2.427842 -0.39887972 4
2.5056775 6.0658871 4
5.2056523 10.275292 4
8.3570693 -5.0235511 4
9.5525284 1.2223601 4
9.1082859 4.1076137 4
8.379944 10.568381 4
13.181186 -4.9746992 4
12.303984 1.4200077 4
12.154948 4.400024 4
13.324526 10.645972 4
16.513912 -4.6289817 4
19.12355 -0.45362471 4
19.164535 6.0199701 4
16.743518 10.28522 4
21.871425 -1.9694673 4
21.040634 1.7370786 4
21.042295 3.8680581 4
21.837632 7.5529119 4
22.172053 0.42558491 4
23.427162 2.1978076 4
23.217562 3.4687788 4
22.167527 5.1472981 4
CELLS 0 0
CELL_TYPES 0
POINT_DATA 32
SCALARS m double
LOOKUP_TABLE default
1
1
1
1
1
1
1
1
1
1
1
1
1
1
1
1
1
1
1
1
1
1
1
1
1
1
1
1
1
1
1
1
VECTORS v double
-10.682365 -1.2072859 0
-11.813187 0.14696763 0
-12.251052 -0.15808898 0
-10.444378 1.2442666 0
-12.231833 -4.5841975 0
-9.7104502 -0.29255143 0
-9.8150359 0.17952861 0
-12.52612 4.6801151 0
-6.4863101 -8.6902327 0
-8.4215647 -3.0788307 0
-8.277756 3.1742539 0
-5.997675 8.7393933 0
-2.8691679 -7.8776986 0
-0.83021916 -0.96635705 0
-1.4551647 0.58988596 0
-2.8582156 7.7831403 0
2.778593 -7.8105603 0
1.1646182 -0.70600713 0
0.97490459 0.98075367 0
2.9679278 7.8900444 0
6.1549935 -8.6917373 0
8.3083654 -3.1701976 0
8.3834975 3.0941895 0
6.4744681 8.7473274 0
12.397175 -4.6618122 0
9.7307218 -0.26299097 0
9.7770044 0.24381138 0
12.360289 4.6345038 0
10.565164 -1.2708533 0
12.162565 0.16072642 0
11.8903 -0.021940471 0
10.585128 1.1645752 0
