# vtk DataFile Version 4.0
hesp visualization file
ASCII
DATASET UNSTRUCTURED_GRID
POINTS 32 double
-4.1320645 0.060746077 4
-5.4408447 2.3514018 4
-5.9140954 3.2888126 4
-3.9246374 5.5592538 4
-4.1712014 -3.4147825 4
-2.6081447 1.5992675 4
-2.7326901 3.8858013 4
-4.4833287 9.1419125 4
2.7227564 -7.4963201 4
-0.35212489 -1.4145322 4
-0.22658509 7.1131285 4
3.2266298 13.159296 4
7.4101484 -7.6231793 4
9.2791709 0.90403336 4
8.6285004 4.3017953 4
7.4365258 13.136801 4
14.098261 -7.5521697 4
12.687589 1.1874206 4
12.476352 4.7231869 4
14.304058 13.249673 4
18.544916 -7.4972563 4
21.865972 -1.4995008 4
21.931836 7.040726 4
18.879974 13.171837 4
25.962394 -3.5064277 4
24.264294 1.6435629 4
24.284038 3.9568414 4
25.916417 9.0808974 4
25.649317 0.020285719 4
27.418468 2.3503961 4
27.153309 3.364704 4
25.651178 5.5132158 4
CELLS 0 0
CELL_TYPES 0
POINT_DATA 32
SCALARS m double
LOOKUP_TABLE default
1
1
1
1
1
1
1
1
1
1
1
1
1
1
1
1
1
1
1
1
1
1
1
1
1
1
1
1
1
1
1
1
VECTORS v double
-10.641395 -1.134524 0
-11.772502 0.21094506 0
-12.245354 -0.2368658 0
-10.391416 1.1574723 0
-12.23141 -4.5772942 0
-9.7772137 -0.31180023 0
-9.8830646 0.2257904 0
-12.525391 4.6745455 0
-6.4858547 -8.6902193 0
-8.4254033 -3.0771083 0
-8.2805004 3.1730053 0
-5.9967003 8.7394056 0
-2.8696082 -7.8776467 0
-0.82724799 -0.96346928 0
-1.4531184 0.58744568 0
-2.8591759 7.7830746 0
2.77924 -7.8105009 0
1.1611026 -0.70400258 0
0.97340185 0.97830112 0
2.9684631 7.8899907 0
6.1543277 -8.6917378 0
8.311363 -3.1688235 0
8.3868799 3.0926361 0
6.4739236 8.7473181 0
12.396637 -4.6556092 0
9.7922074 -0.29287599 0
9.8526454 0.28243859 0
12.359707 4.6284715 0
10.519252 -1.2014067 0
12.1313 0.32326993 0
11.87291 -0.17183197 0
10.537216 1.0737469 0
