# vtk DataFile Version 4.0
hesp visualization file
ASCII
DATASET UNSTRUCTURED_GRID
POINTS 32 double
5.1979432 1.0820824 4
5.0248186 2.2369266 4
4.9847633 3.385289 4
5.1967106 4.5428585 4
6.4862607 0.5888086 4
5.9783805 1.9603155 4
5.9426618 3.6162855 4
6.4718287 5.001655 4
8.4337634 0.15104125 4
7.0996807 1.4001254 4
7.0672394 4.2646477 4
8.5108015 5.4697944 4
9.9321182 -0.68905312 4
10.020957 1.7598648 4
9.9168151 3.7784127 4
9.9458939 6.2851131 4
11.657195 -0.67679657 4
11.650869 1.8123665 4
11.611318 3.8553114 4
11.695929 6.3045264 4
13.124026 0.15087393 4
14.534557 1.3617949 4
14.525694 4.2321827 4
13.17875 5.4744334 4
15.133436 0.59909485 4
15.664338 1.9755482 4
15.641382 3.6341319 4
15.130964 5.0125772 4
16.414826 1.0766852 4
16.614627 2.2344739 4
16.598271 3.3816794 4
16.414974 4.5358935 4
CELLS 0 0
CELL_TYPES 0
POINT_DATA 32
SCALARS m double
LOOKUP_TABLE default
1
1
1
1
1
1
1
1
1
1
1
1
1
1
1
1
1
1
1
1
1
1
1
1
1
1
1
1
1
1
1
1
VECTORS v double
-9.4832339 -0.018574899 0
-11.35788 0.23216349 0
-12.274729 -0.28950145 0
-9.4872726 0.05072457 0
-9.4341428 -2.0569095 0
-11.902237 -1.4957896 0
-11.424256 1.4280148 0
-9.9165501 2.5009111 0
-6.507778 -8.6924421 0
-10.62018 -6.1517615 0
-10.323046 5.909622 0
-6.0464573 8.7292823 0
-2.8509593 -7.9004103 0
-0.91888252 -0.99947117 0
-1.5193928 0.61475292 0
-2.8161037 7.8134531 0
2.7510107 -7.8364923 0
1.2568842 -0.72751899 0
1.0356759 1.0103856 0
2.9423502 7.9144919 0
6.1897797 -8.6875237 0
10.453915 -6.0835039 0
10.595897 6.1261713 0
6.5015772 8.7473127 0
9.68068 -2.2922233 0
11.552395 -1.5373599 0
11.78872 1.4186139 0
9.5611886 2.153105 0
9.4830961 -0.031548781 0
12.070641 0.33017014 0
11.53941 -0.21303743 0
9.4851007 0.037035304 0
