# vtk DataFile Version 4.0
hesp visualization file
ASCII
DATASET UNSTRUCTURED_GRID
POINTS 32 double
7.669996 1.1439847 4
7.674055 2.2524885 4
7.673088 3.3613147 4
7.6700766 4.4699069 4
8.5781831 1.1544235 4
8.5909214 2.2576398 4
8.5899887 3.3535405 4
8.5779775 4.456876 4
9.4679783 1.2197033 4
9.4650502 2.2867533 4
9.4645107 3.3262239 4
9.4678704 4.3930363 4
10.360965 1.1088455 4
10.371577 2.2326256 4
10.370714 3.3791104 4
10.360883 4.5030878 4
11.251535 1.1090714 4
11.241576 2.2329331 4
11.241384 3.3796317 4
11.251467 4.5034335 4
12.144599 1.2194922 4
12.148256 2.2864316 4
12.147514 3.325817 4
12.144399 4.3927938 4
13.034333 1.1549115 4
13.022075 2.2581984 4
13.022077 3.3541193 4
13.0343 4.4574074 4
13.942688 1.1433751 4
13.939245 2.2517927 4
13.938965 3.3605121 4
13.94224 4.4689275 4
CELLS 0 0
CELL_TYPES 0
POINT_DATA 32
SCALARS m double
LOOKUP_TABLE default
1
1
1
1
1
1
1
1
1
1
1
1
1
1
1
1
1
1
1
1
1
1
1
1
1
1
1
1
1
1
1
1
VECTORS v double
-9.7861223 -0.35095728 0
-10.330678 -0.15091134 0
-10.351788 0.19718449 0
-9.7847302 0.39657571 0
8.9957198 -0.27359725 0
8.7989838 -0.10380408 0
8.8025752 0.046897714 0
8.9937641 0.22049732 0
-8.7619406 2.4419966 0
-9.1970438 1.1625913 0
-9.2137381 -1.1321428 0
-8.7672802 -2.4212204 0
8.7241673 -2.1683287 0
8.881068 -1.0909028 0
8.8928319 1.0654419 0
8.7301904 2.1519283 0
-8.7255224 -2.1580727 0
-8.8782964 -1.0759479 0
-8.891584 1.0885795 0
-8.7266849 2.1666118 0
8.7633547 2.4306501 0
9.2003835 1.1465326 0
9.2107671 -1.1529764 0
8.7648067 -2.4346841 0
-8.995973 -0.25016485 0
-8.7924506 -0.076521386 0
-8.8047883 0.076604225 0
-8.9948352 0.25054894 0
9.7866044 -0.36983857 0
10.328916 -0.17281335 0
10.349831 0.17273768 0
9.7847134 0.3696468 0
