# vtk DataFile Version 4.0
hesp visualization file
ASCII
DATASET UNSTRUCTURED_GRID
POINTS 32 double
3.6911707 1.1412039 4
3.7066365 2.2509915 4
3.7061643 3.3615821 4
3.6909095 4.4714116 4
4.8009627 1.1561767 4
4.8059165 2.2555722 4
4.805572 3.356714 4
4.8007914 4.4561366 4
5.9115535 1.1561722 4
5.9068015 2.2555812 4
5.9067238 3.3567252 4
5.9115189 4.4561404 4
7.0214044 1.1409097 4
7.0061493 2.2507914 4
7.0061403 3.3615184 4
7.0214012 4.4714008 4
14.590909 1.1409094 4
14.606169 2.2507916 4
14.606169 3.3615187 4
14.590909 4.4714008 4
15.700791 1.1561694 4
15.705582 2.2555824 4
15.705582 3.3567278 4
15.700791 4.4561408 4
16.811519 1.1561694 4
16.806728 2.2555824 4
16.806728 3.3567278 4
16.811519 4.4561408 4
17.921401 1.1409094 4
17.906141 2.2507916 4
17.906141 3.3615187 4
17.921401 4.4714009 4
CELLS 0 0
CELL_TYPES 0
POINT_DATA 32
SCALARS m double
LOOKUP_TABLE default
1
1
1
1
1
1
1
1
1
1
1
1
1
1
1
1
1
1
1
1
1
1
1
1
1
1
1
1
1
1
1
1
VECTORS v double
10.111256 0.11153884 0
10.201086 0.053151353 0
10.201284 -0.051116131 0
10.111364 -0.11114128 0
10.053192 0.20139683 0
10.108026 0.10550151 0
10.105478 -0.10570805 0
10.051929 -0.20145175 0
9.9486649 0.20141935 0
9.8957293 0.10556898 0
9.8943463 -0.10562559 0
9.948072 -0.20138619 0
9.8887297 0.11137193 0
9.7988618 0.051928159 0
9.7986069 -0.051939708 0
9.88864 -0.11136719 0
-9.8886396 0.11136651 0
-9.7986288 0.051932486 0
-9.7986288 -0.051932486 0
-9.8886396 -0.11136651 0
-9.9480709 0.20137727 0
-9.8944182 0.10558526 0
-9.8944182 -0.10558526 0
-9.9480709 -0.20137727 0
-10.051934 0.20137711 0
-10.105587 0.10558519 0
-10.105587 -0.10558519 0
-10.051934 -0.20137711 0
-10.111367 0.1113658 0
-10.201378 0.051932199 0
-10.201378 -0.051932199 0
-10.111367 -0.1113658 0
