# vtk DataFile Version 4.0
hesp visualization file
ASCII
DATASET UNSTRUCTURED_GRID
POINTS 32 double
7.2630587 1.1299503 4
7.2480291 2.2466181 4
7.2462466 3.3690967 4
7.2630992 4.4858141 4
8.4168531 1.0743972 4
8.3718016 2.2198146 4
8.3701268 3.3869365 4
8.4154366 4.5331712 4
9.5579548 1.4148764 4
9.4913246 2.3839067 4
9.4895482 3.2332089 4
9.5570814 4.1999834 4
10.253882 0.99136214 4
10.326395 2.1562097 4
10.32727 3.4526182 4
10.255562 4.6196084 4
11.357585 0.99233472 4
11.285654 2.1582851 4
11.286147 3.4559367 4
11.358088 4.6211421 4
12.054982 1.4136083 4
12.122766 2.3814174 4
12.121488 3.2302922 4
12.054664 4.1984689 4
13.196359 1.0765944 4
13.242139 2.2225344 4
13.241396 3.3899129 4
13.196095 4.5357979 4
14.349598 1.1285576 4
14.365142 2.2450191 4
14.365725 3.3672819 4
14.3492 4.4837385 4
CELLS 0 0
CELL_TYPES 0
POINT_DATA 32
SCALARS m double
LOOKUP_TABLE default
1
1
1
1
1
1
1
1
1
1
1
1
1
1
1
1
1
1
1
1
1
1
1
1
1
1
1
1
1
1
1
1
VECTORS v double
-10.158532 -0.34541175 0
-10.640664 -0.13761328 0
-10.660947 0.18599693 0
-10.160702 0.39222486 0
-9.0831173 -2.709675 0
-10.284176 -1.2520322 0
-10.316783 1.1216844 0
-9.1213763 2.5986624 0
-1.0549614 9.1290268 0
-7.9501352 3.8016249 0
-8.0672815 -3.6059736 0
-1.2255588 -9.077954 0
0.47121073 -6.777279 0
7.3564676 -4.6381737 0
7.4713365 4.4755093 0
0.67798192 6.7725156 0
-0.58759773 -6.766613 0
-7.4326292 -4.5399881 0
-7.377683 4.6215466 0
-0.53428555 6.7970013 0
1.150547 9.1038644 0
8.0311591 3.6810175 0
7.9746727 -3.7267266 0
1.1079166 -9.109703 0
9.101825 -2.6578116 0
10.302334 -1.1874163 0
10.302135 1.1929577 0
9.0996547 2.6611548 0
10.158158 -0.36523228 0
10.638101 -0.16043229 0
10.658478 0.16031616 0
10.159673 0.36507293 0
