# vtk DataFile Version 4.0
hesp visualization file
ASCII
DATASET UNSTRUCTURED_GRID
POINTS 32 double
-0.0806779 0.50516131 4
-0.92738923 2.2118316 4
-1.2925959 3.4357007 4
0.034033844 5.1031417 4
0.47682409 -1.6742871 4
1.0949466 1.7148427 4
1.0102779 3.8080988 4
0.2764539 7.3646945 4
5.1874601 -4.1940339 4
2.848877 -0.24492337 4
2.9195354 5.9071634 4
5.5055457 9.8383225 4
8.5005232 -4.6296654 4
9.5940644 1.2706985 4
9.1810608 4.0781023 4
8.5228452 10.179223 4
13.042262 -4.5841703 4
12.245725 1.4553221 4
12.106189 4.3509688 4
13.176135 10.251469 4
16.206156 -4.1943951 4
18.708165 -0.29510278 4
18.745397 5.8652471 4
16.419789 9.8478541 4
21.251565 -1.7362948 4
20.554594 1.7499059 4
20.554045 3.8562354 4
21.219616 7.3211063 4
21.643438 0.4896731 4
22.818411 2.1924809 4
22.623212 3.4672815 4
21.63792 5.0883629 4
CELLS 0 0
CELL_TYPES 0
POINT_DATA 32
SCALARS m double
LOOKUP_TABLE default
1
1
1
1
1
1
1
1
1
1
1
1
1
1
1
1
1
1
1
1
1
1
1
1
1
1
1
1
1
1
1
1
VECTORS v double
-10.695877 -1.2320802 0
-11.790775 0.045114765 0
-12.291909 -0.050205662 0
-10.461154 1.2713233 0
-12.231762 -4.5880007 0
-9.6874279 -0.28197365 0
-9.792458 0.16128965 0
-12.526246 4.683451 0
-6.4865064 -8.690233 0
-8.4197059 -3.0794487 0
-8.2764728 3.1747134 0
-5.9980846 8.7393708 0
-2.8689781 -7.877731 0
-0.83126882 -0.96720741 0
-1.4558642 0.59059302 0
-2.8578129 7.7831893 0
2.7783179 -7.8106001 0
1.1658103 -0.70659162 0
0.97546203 0.98148169 0
2.9676977 7.8900794 0
6.1552774 -8.6917268 0
8.3069356 -3.1707017 0
8.3818833 3.094757 0
6.4747021 8.747324 0
12.397168 -4.6653596 0
9.7099394 -0.24933045 0
9.7518995 0.22830125 0
12.360322 4.6379902 0
10.580123 -1.2936177 0
12.18763 0.052655351 0
11.884574 0.081306419 0
10.599782 1.1940088 0
