# vtk DataFile Version 4.0
hesp visualization file
ASCII
DATASET UNSTRUCTURED_GRID
POINTS 32 double
6.8063747 1.156502 4
6.8320384 2.2568479 4
6.8314179 3.3562396 4
6.8061611 4.4566061 4
7.9067016 1.1814486 4
7.915752 2.2651128 4
7.9150779 3.3470381 4
7.9064966 4.4306974 4
9.0061403 1.1815446 4
8.9978221 2.2652043 4
8.9970756 3.347116 4
9.0058849 4.4307567 4
10.106982 1.1562533 4
10.082208 2.2565024 4
10.08125 3.3557784 4
10.106675 4.4560434 4
11.505637 1.1562569 4
11.530951 2.2565124 4
11.530952 3.3557976 4
11.505637 4.4560535 4
12.606425 1.181539 4
12.615104 2.2651952 4
12.615104 3.347115 4
12.606425 4.4307712 4
13.705801 1.1815322 4
13.697097 2.2651929 4
13.697097 3.3471174 4
13.705801 4.4307781 4
14.80614 1.1561644 4
14.780772 2.2564935 4
14.780772 3.3558167 4
14.80614 4.4561458 4
CELLS 0 0
CELL_TYPES 0
POINT_DATA 32
SCALARS m double
LOOKUP_TABLE default
1
1
1
1
1
1
1
1
1
1
1
1
1
1
1
1
1
1
1
1
1
1
1
1
1
1
1
1
1
1
1
1
VECTORS v double
9.9451552 -0.054289126 0
9.8667673 -0.026486915 0
9.8652239 0.027888254 0
9.9452604 0.057330115 0
9.9731584 -0.13470224 0
9.9699827 -0.032870282 0
9.9674221 0.031749738 0
9.9732205 0.13371914 0
10.029161 -0.13399264 0
10.036475 -0.032132514 0
10.034533 0.032378878 0
10.02946 0.13390131 0
10.087104 -0.050300349 0
10.170191 -0.026555667 0
10.164982 0.026427115 0
10.085421 0.050080748 0
-10.085435 -0.050186056 0
-10.166045 -0.026530207 0
-10.16599 0.026517373 0
-10.085399 0.05019479 0
-10.029466 -0.13387679 0
-10.035427 -0.032225067 0
-10.035425 0.032224582 0
-10.029464 0.13387693 0
-9.9733003 -0.13411416 0
-9.9682196 -0.032294586 0
-9.9682195 0.032294544 0
-9.9733002 0.13411416 0
-9.9453066 -0.05479224 0
-9.8659956 -0.027081442 0
-9.8659956 0.027081436 0
-9.9453066 0.054792238 0
