# vtk DataFile Version 4.0
hesp visualization file
ASCII
DATASET UNSTRUCTURED_GRID
POINTS 32 double
2.9390375 0.88857061 4
2.3730115 2.2685281 4
2.1848812 3.371566 4
2.9905851 4.7076579 4
3.9008904 -0.37947005 4
3.7682876 1.7718956 4
3.7153221 3.7945876 4
3.7827806 6.0434281 4
7.0040984 -1.7607824 4
5.2009648 0.61771268 4
5.2333299 5.0177581 4
7.1858445 7.3913965 4
9.3034348 -2.423791 4
9.8285617 1.5426603 4
9.5898625 3.911804 4
9.3222158 7.9997555 4
12.264904 -2.3970651 4
11.917389 1.6539484 4
11.832066 4.0751613 4
12.345667 8.0421255 4
14.482085 -1.7607641 4
16.386351 0.59315013 4
16.40311 4.9982245 4
14.606378 7.3986313 4
17.781472 -0.42012435 4
17.870745 1.7935713 4
17.864718 3.8198934 4
17.759649 6.0125545 4
18.655129 0.88709916 4
19.38001 2.2561285 4
19.285505 3.3730268 4
18.644655 4.7105767 4
CELLS 0 0
CELL_TYPES 0
POINT_DATA 32
SCALARS m double
LOOKUP_TABLE default
1
1
1
1
1
1
1
1
1
1
1
1
1
1
1
1
1
1
1
1
1
1
1
1
1
1
1
1
1
1
1
1
VECTORS v double
-10.947 -1.5910828 0
-11.873749 -0.32835387 0
-12.570515 0.40125746 0
-10.715775 1.6177282 0
-12.224602 -4.7057673 0
-9.3053159 -0.063023457 0
-9.4483457 -0.12553168 0
-12.510725 4.7992774 0
-6.4909986 -8.690035 0
-8.3496382 -3.0758578 0
-8.2300167 3.1757771 0
-6.0069565 8.7380972 0
-2.8646391 -7.8791515 0
-0.84839317 -0.97743534 0
-1.4673504 0.59884979 0
-2.8491629 7.7854328 0
2.7722222 -7.8123693 0
1.1843313 -0.71355571 0
0.98556107 0.99042186 0
2.9624342 7.8916462 0
6.1616465 -8.6910285 0
8.2536167 -3.1703582 0
8.3221632 3.0939434 0
6.4800298 8.74694 0
12.383079 -4.7794141 0
9.3719234 0.0040930042 0
9.3596255 -0.029693544 0
12.349069 4.753747 0
10.833496 -1.620087 0
12.409289 -0.40499403 0
12.033974 0.47799471 0
10.845944 1.5846739 0
