# vtk DataFile Version 4.0
hesp visualization file
ASCII
DATASET UNSTRUCTURED_GRID
POINTS 32 double
0.13330385 0.52991869 4
-0.69164816 2.2113302 4
-1.046594 3.4362755 4
0.24333525 5.0775905 4
0.72145857 -1.5825073 4
1.2885862 1.7204292 4
1.206021 3.8049607 4
0.52697903 7.2710077 4
5.3171912 -4.0202293 4
3.0172615 -0.18333154 4
3.0850583 5.843667 4
5.6255094 9.6635353 4
8.5579018 -4.4721106 4
9.6106947 1.2900465 4
9.2101814 4.0662872 4
8.5799995 10.023559 4
12.986697 -4.4279581 4
12.222403 1.4694566 4
12.086677 4.3313358 4
13.116782 10.093667 4
16.083049 -4.0205606 4
18.542033 -0.23168639 4
18.577768 5.8033493 4
16.290294 9.6729076 4
21.003623 -1.6429689 4
20.360493 1.7548255 4
20.359125 3.8517441 4
20.97241 7.2283281 4
21.431765 0.51565144 4
22.574555 2.1918564 4
22.38553 3.4652494 4
21.425855 5.0643465 4
CELLS 0 0
CELL_TYPES 0
POINT_DATA 32
SCALARS m double
LOOKUP_TABLE default
1
1
1
1
1
1
1
1
1
1
1
1
1
1
1
1
1
1
1
1
1
1
1
1
1
1
1
1
1
1
1
1
VECTORS v double
-10.702442 -1.243883 0
-11.783526 0.0051018508 0
-12.308299 -0.0072839012 0
-10.469144 1.2840268 0
-12.231678 -4.5900534 0
-9.6763079 -0.2765314 0
-9.7816403 0.15231591 0
-12.526261 4.6852988 0
-6.4866063 -8.6902324 0
-8.4187187 -3.0797388 0
-8.2757973 3.1749335 0
-5.9982913 8.7393569 0
-2.8688816 -7.8777491 0
-0.83177506 -0.96759917 0
-1.4562003 0.59091737 0
-2.8576098 7.7832173 0
2.7781786 -7.8106225 0
1.1663802 -0.70686037 0
0.97573467 0.98181797 0
2.9675807 7.8900991 0
6.1554213 -8.69172 0
8.3061789 -3.1709417 0
8.3810292 3.0950266 0
6.474821 8.7473212 0
12.397112 -4.667296 0
9.6999369 -0.24245348 0
9.7398698 0.22064489 0
12.360289 4.6399002 0
10.587312 -1.3044193 0
12.198025 0.0098230527 0
11.88374 0.12183822 0
10.606788 1.2078858 0
