# vtk DataFile Version 4.0
hesp visualization file
ASCII
DATASET UNSTRUCTURED_GRID
POINTS 32 double
-0.72193035 0.43215219 4
-1.6356206 2.2181949 4
-2.0286403 3.4288086 4
-0.59301607 5.178424 4
-0.2570848 -1.9494241 4
0.51284903 1.697529 4
0.42189601 3.818453 4
-0.47511662 7.6455756 4
4.798277 -4.7154479 4
2.3436249 -0.42966749 4
2.422899 6.0976293 4
5.1456759 10.362686 4
8.3283774 -5.102328 4
9.5442271 1.2126973 4
9.0937348 4.1135119 4
8.3513615 10.646212 4
13.208972 -5.0528048 4
12.315629 1.4129481 4
12.164696 4.4098309 4
13.354205 10.724872 4
16.575462 -4.7158991 4
19.206634 -0.48532625 4
19.248371 6.0509115 4
16.808262 10.372694 4
21.995396 -2.0160827 4
21.137959 1.7344373 4
21.140087 3.8705093 4
21.961235 7.5992543 4
22.277692 0.41289625 4
23.548763 2.1995241 4
23.336474 3.4684543 4
22.273365 5.158918 4
CELLS 0 0
CELL_TYPES 0
POINT_DATA 32
SCALARS m double
LOOKUP_TABLE default
1
1
1
1
1
1
1
1
1
1
1
1
1
1
1
1
1
1
1
1
1
1
1
1
1
1
1
1
1
1
1
1
VECTORS v double
-10.680068 -1.2030252 0
-11.818364 0.16769186 0
-12.242815 -0.17982969 0
-10.441482 1.2395514 0
-12.231832 -4.5836154 0
-9.7143663 -0.29423686 0
-9.8189061 0.18257218 0
-12.526087 4.6796166 0
-6.4862783 -8.6902324 0
-8.4218554 -3.0787243 0
-8.2779585 3.1741758 0
-5.9976082 8.7393963 0
-2.8691986 -7.8776938 0
-0.8300407 -0.96620655 0
-1.4550452 0.58976036 0
-2.8582814 7.7831332 0
2.7786378 -7.8105545 0
1.1644138 -0.70590349 0
0.97481096 0.98062509 0
2.9679652 7.8900393 0
6.1549474 -8.6917386 0
8.3085898 -3.1701116 0
8.3837509 3.0940926 0
6.4744302 8.7473276 0
12.397163 -4.6612748 0
9.7342697 -0.26521865 0
9.7813071 0.24639147 0
12.360271 4.6339774 0
10.5626 -1.2669244 0
12.157633 0.1826054 0
11.892019 -0.042996836 0
10.582598 1.1594716 0
