# vtk DataFile Version 4.0
hesp visualization file
ASCII
DATASET UNSTRUCTURED_GRID
POINTS 32 double
7.1615874 1.1265179 4
7.141689 2.2452719 4
7.1397029 3.3709283 4
7.1616026 4.4897143 4
8.3260686 1.0474516 4
8.2690527 2.207329 4
8.2670477 3.3981187 4
8.3242717 4.5590057 4
9.5307032 1.5137873 4
9.4043665 2.4046151 4
9.4013338 3.2144247 4
9.5282291 4.1018531 4
10.275083 0.91326316 4
10.401403 2.1080909 4
10.403281 3.4990063 4
10.278772 4.6974801 4
11.335246 0.9144439 4
11.209998 2.1112352 4
11.210962 3.5038964 4
11.336307 4.6993769 4
12.083131 1.5121182 4
12.210548 2.4007667 4
12.208752 3.2104434 4
12.082389 4.099855 4
13.28733 1.0501683 4
13.34507 2.2106947 4
13.344326 3.4018074 4
13.287043 4.5622577 4
14.451067 1.1249265 4
14.471459 2.2434441 4
14.472242 3.3688558 4
14.450684 4.487368 4
CELLS 0 0
CELL_TYPES 0
POINT_DATA 32
SCALARS m double
LOOKUP_TABLE default
1
1
1
1
1
1
1
1
1
1
1
1
1
1
1
1
1
1
1
1
1
1
1
1
1
1
1
1
1
1
1
1
VECTORS v double
-10.134945 -0.34081745 0
-10.627056 -0.13150042 0
-10.647543 0.18019146 0
-10.137852 0.38755259 0
-9.0747614 -2.6779606 0
-10.264287 -1.2446471 0
-10.297718 1.1143753 0
-9.1124789 2.5667324 0
-3.2054736 9.7258968 0
-8.9102168 -0.3578145 0
-9.0576156 0.52483598 0
-3.3475999 -9.6121199 0
2.6026013 -8.1596709 0
5.5719602 -4.8392915 0
5.6330096 4.64732 0
2.7936297 8.1250901 0
-2.7120375 -8.1322296 0
-5.6307818 -4.717 0
-5.5577809 4.8284158 0
-2.6550144 8.1691001 0
3.2847522 9.6651307 0
9.0086985 -0.49207835 0
8.9469008 0.44537831 0
3.2462952 -9.6812824 0
9.0932561 -2.6259193 0
10.282487 -1.1801184 0
10.282675 1.1855194 0
9.0910453 2.6293219 0
10.134869 -0.36074655 0
10.625083 -0.15443376 0
10.644707 0.15432716 0
10.136413 0.36058372 0
