# vtk DataFile Version 4.0
hesp visualization file
ASCII
DATASET UNSTRUCTURED_GRID
POINTS 32 double
1.3132671 0.67133059 4
0.60317622 2.222582 4
0.31246338 3.4241405 4
1.3981044 4.9314912 4
2.066873 -1.0766383 4
2.3485258 1.7484944 4
2.2777145 3.7918725 4
1.9048301 6.7547217 4
6.030761 -3.0643045 4
3.9428562 0.15554262 4
3.9950825 5.4943413 4
6.2854095 8.7022137 4
8.8734371 -3.6055492 4
9.702391 1.3966273 4
9.3704966 4.0011672 4
8.8942502 9.1673905 4
12.681157 -3.5687783 4
12.093878 1.5473104 4
11.979236 4.2232109 4
12.790398 9.225746 4
15.405891 -3.0644753 4
17.628708 0.11720599 4
17.656254 5.4627973 4
15.578012 8.7107042 4
19.640007 -1.1286423 4
19.297492 1.7785996 4
19.292506 3.8306177 4
19.612832 6.7170216 4
20.26427 0.66333213 4
21.229319 2.2036658 4
21.077835 3.4398341 4
20.256292 4.9261632 4
CELLS 0 0
CELL_TYPES 0
POINT_DATA 32
SCALARS m double
LOOKUP_TABLE default
1
1
1
1
1
1
1
1
1
1
1
1
1
1
1
1
1
1
1
1
1
1
1
1
1
1
1
1
1
1
1
1
VECTORS v double
-10.758266 -1.3362115 0
-11.76592 -0.20670687 0
-12.404062 0.22690814 0
-10.533649 1.3812622 0
-12.229935 -4.6109315 0
-9.5852968 -0.22717368 0
-9.6944084 0.077001023 0
-12.525032 4.7051807 0
-6.487513 -8.6902119 0
-8.4085464 -3.0816616 0
-8.268963 3.1765537 0
-6.0001335 8.7391809 0
-2.8680057 -7.8779512 0
-0.83586116 -0.97045707 0
-1.458907 0.59326062 0
-2.8558031 7.783539 0
2.7769267 -7.8108757 0
1.1709 -0.70881387 0
0.97800951 0.98428717 0
2.9665198 7.890321 0
6.1567184 -8.6916279 0
8.298434 -3.1726501 0
8.3723006 3.0969258 0
6.4758981 8.7472748 0
12.395327 -4.6874489 0
9.6184665 -0.18228862 0
9.6428767 0.15589899 0
12.358809 4.6599658 0
10.646641 -1.3889691 0
12.263997 -0.22367043 0
11.898998 0.33792222 0
10.664701 1.3143092 0
